<?xml version="1.0" encoding="UTF-8"?>

<!-- generated on 05/09/20 20:16:51 by Eclipse SUMO Version 1.6.0
<configuration xmlns:xsi="http://www.w3.org/2001/XMLSchema-instance" xsi:noNamespaceSchemaLocation="http://sumo.dlr.de/xsd/sumoConfiguration.xsd">

    <input>
        <net-file value="net.net.xml"/>
        <route-files value="routes.rou.xml"/>
        <additional-files value="additional.add.xml"/>
    </input>

    <time>
        <begin value="0"/>
        <end value="12000"/>
    </time>

    <processing>
        <pedestrian.model value="nonInteracting"/>
    </processing>

    <mesoscopic>
        <mesosim value="true"/>
        <meso-edgelength value="500"/>
        <meso-tauff value="1.4"/>
        <meso-taufj value="1.4"/>
        <meso-taujf value="1.4"/>
        <meso-taujj value="1.4"/>
        <meso-jam-threshold value="-1"/>
        <meso-tls-penalty value="0.5"/>
    </mesoscopic>

    <gui_only>
        <quit-on-end value="true"/>
        <start value="true"/>
    </gui_only>

</configuration>
-->

<meandata xmlns:xsi="http://www.w3.org/2001/XMLSchema-instance" xsi:noNamespaceSchemaLocation="http://sumo.dlr.de/xsd/meandata_file.xsd">
    <interval begin="0.00" end="300.00" id="la1">
        <edge id="center" sampledSeconds="711.28" traveltime="22.43" overlapTraveltime="22.80" density="7.90" laneDensity="7.90" occupancy="3.95" waitingTime="0.00" speed="13.38" departed="0" arrived="0" entered="32" left="30" laneChangedFrom="0" laneChangedTo="0"/>
        <edge id="left" sampledSeconds="0.00" departed="0" arrived="0" entered="0" left="0" laneChangedFrom="0" laneChangedTo="0"/>
        <edge id="left_d" sampledSeconds="0.00" departed="0" arrived="0" entered="0" left="0" laneChangedFrom="0" laneChangedTo="0"/>
        <edge id="origin" sampledSeconds="517.18" traveltime="15.46" overlapTraveltime="15.85" density="8.62" laneDensity="8.62" occupancy="4.31" waitingTime="0.00" speed="12.93" departed="34" arrived="0" entered="0" left="32" laneChangedFrom="0" laneChangedTo="0"/>
        <edge id="right" sampledSeconds="214.56" traveltime="7.46" overlapTraveltime="7.83" density="7.15" laneDensity="7.15" occupancy="3.58" waitingTime="0.00" speed="13.41" departed="0" arrived="28" entered="29" left="0" laneChangedFrom="0" laneChangedTo="0"/>
        <edge id="right_u" sampledSeconds="0.00" departed="0" arrived="0" entered="0" left="0" laneChangedFrom="0" laneChangedTo="0"/>
        <edge id="tls" sampledSeconds="343.65" traveltime="11.56" overlapTraveltime="12.14" density="11.46" laneDensity="11.46" occupancy="5.73" waitingTime="0.00" speed="8.65" departed="0" arrived="0" entered="30" left="29" laneChangedFrom="0" laneChangedTo="0"/>
    </interval>
    <interval begin="300.00" end="600.00" id="la1">
        <edge id="center" sampledSeconds="725.01" traveltime="22.07" overlapTraveltime="22.43" density="8.06" laneDensity="8.06" occupancy="4.03" waitingTime="0.00" speed="13.59" departed="0" arrived="0" entered="34" left="34" laneChangedFrom="0" laneChangedTo="0"/>
        <edge id="left" sampledSeconds="0.00" departed="0" arrived="0" entered="0" left="0" laneChangedFrom="0" laneChangedTo="0"/>
        <edge id="left_d" sampledSeconds="0.00" departed="0" arrived="0" entered="0" left="0" laneChangedFrom="0" laneChangedTo="0"/>
        <edge id="origin" sampledSeconds="514.30" traveltime="15.51" overlapTraveltime="15.90" density="8.57" laneDensity="8.57" occupancy="4.29" waitingTime="0.00" speed="12.89" departed="34" arrived="0" entered="0" left="34" laneChangedFrom="0" laneChangedTo="0"/>
        <edge id="right" sampledSeconds="238.84" traveltime="7.19" overlapTraveltime="7.55" density="7.96" laneDensity="7.96" occupancy="3.98" waitingTime="0.00" speed="13.91" departed="0" arrived="34" entered="33" left="0" laneChangedFrom="0" laneChangedTo="0"/>
        <edge id="right_u" sampledSeconds="0.00" departed="0" arrived="0" entered="0" left="0" laneChangedFrom="0" laneChangedTo="0"/>
        <edge id="tls" sampledSeconds="374.78" traveltime="11.34" overlapTraveltime="11.90" density="12.49" laneDensity="12.49" occupancy="6.25" waitingTime="0.00" speed="8.82" departed="0" arrived="0" entered="34" left="33" laneChangedFrom="0" laneChangedTo="0"/>
    </interval>
    <interval begin="600.00" end="900.00" id="la1">
        <edge id="center" sampledSeconds="740.56" traveltime="22.09" overlapTraveltime="22.46" density="8.23" laneDensity="8.23" occupancy="4.11" waitingTime="0.00" speed="13.58" departed="0" arrived="0" entered="34" left="32" laneChangedFrom="0" laneChangedTo="0"/>
        <edge id="left" sampledSeconds="0.00" departed="0" arrived="0" entered="0" left="0" laneChangedFrom="0" laneChangedTo="0"/>
        <edge id="left_d" sampledSeconds="0.00" departed="0" arrived="0" entered="0" left="0" laneChangedFrom="0" laneChangedTo="0"/>
        <edge id="origin" sampledSeconds="509.11" traveltime="15.24" overlapTraveltime="15.62" density="8.49" laneDensity="8.49" occupancy="4.24" waitingTime="0.00" speed="13.12" departed="32" arrived="0" entered="0" left="34" laneChangedFrom="0" laneChangedTo="0"/>
        <edge id="right" sampledSeconds="247.90" traveltime="7.29" overlapTraveltime="7.66" density="8.26" laneDensity="8.26" occupancy="4.13" waitingTime="0.00" speed="13.72" departed="0" arrived="33" entered="34" left="0" laneChangedFrom="0" laneChangedTo="0"/>
        <edge id="right_u" sampledSeconds="0.00" departed="0" arrived="0" entered="0" left="0" laneChangedFrom="0" laneChangedTo="0"/>
        <edge id="tls" sampledSeconds="377.96" traveltime="11.38" overlapTraveltime="11.95" density="12.60" laneDensity="12.60" occupancy="6.30" waitingTime="0.00" speed="8.79" departed="0" arrived="0" entered="32" left="34" laneChangedFrom="0" laneChangedTo="0"/>
    </interval>
    <interval begin="900.00" end="1200.00" id="la1">
        <edge id="center" sampledSeconds="1556.20" traveltime="22.40" overlapTraveltime="22.77" density="17.29" laneDensity="17.29" occupancy="8.65" waitingTime="0.00" speed="13.39" departed="0" arrived="0" entered="70" left="69" laneChangedFrom="0" laneChangedTo="0"/>
        <edge id="left" sampledSeconds="0.00" departed="0" arrived="0" entered="0" left="0" laneChangedFrom="0" laneChangedTo="0"/>
        <edge id="left_d" sampledSeconds="0.00" departed="0" arrived="0" entered="0" left="0" laneChangedFrom="0" laneChangedTo="0"/>
        <edge id="origin" sampledSeconds="1102.66" traveltime="15.29" overlapTraveltime="15.67" density="18.38" laneDensity="18.38" occupancy="9.19" waitingTime="0.00" speed="13.08" departed="74" arrived="0" entered="0" left="70" laneChangedFrom="0" laneChangedTo="0"/>
        <edge id="right" sampledSeconds="466.22" traveltime="7.29" overlapTraveltime="7.65" density="15.54" laneDensity="15.54" occupancy="7.77" waitingTime="0.00" speed="13.72" departed="0" arrived="64" entered="64" left="0" laneChangedFrom="0" laneChangedTo="0"/>
        <edge id="right_u" sampledSeconds="0.00" departed="0" arrived="0" entered="0" left="0" laneChangedFrom="0" laneChangedTo="0"/>
        <edge id="tls" sampledSeconds="837.04" traveltime="12.43" overlapTraveltime="13.06" density="27.90" laneDensity="27.90" occupancy="13.95" waitingTime="0.00" speed="8.04" departed="0" arrived="0" entered="69" left="64" laneChangedFrom="0" laneChangedTo="0"/>
    </interval>
    <interval begin="1200.00" end="1500.00" id="la1">
        <edge id="center" sampledSeconds="1654.67" traveltime="22.56" overlapTraveltime="22.93" density="18.39" laneDensity="18.39" occupancy="9.19" waitingTime="0.00" speed="13.30" departed="0" arrived="0" entered="74" left="73" laneChangedFrom="0" laneChangedTo="0"/>
        <edge id="left" sampledSeconds="0.00" departed="0" arrived="0" entered="0" left="0" laneChangedFrom="0" laneChangedTo="0"/>
        <edge id="left_d" sampledSeconds="0.00" departed="0" arrived="0" entered="0" left="0" laneChangedFrom="0" laneChangedTo="0"/>
        <edge id="origin" sampledSeconds="1122.61" traveltime="15.33" overlapTraveltime="15.72" density="18.71" laneDensity="18.71" occupancy="9.36" waitingTime="0.00" speed="13.04" departed="74" arrived="0" entered="0" left="74" laneChangedFrom="0" laneChangedTo="0"/>
        <edge id="right" sampledSeconds="544.76" traveltime="7.36" overlapTraveltime="7.73" density="18.16" laneDensity="18.16" occupancy="9.08" waitingTime="0.00" speed="13.59" departed="0" arrived="75" entered="74" left="0" laneChangedFrom="0" laneChangedTo="0"/>
        <edge id="right_u" sampledSeconds="0.00" departed="0" arrived="0" entered="0" left="0" laneChangedFrom="0" laneChangedTo="0"/>
        <edge id="tls" sampledSeconds="893.46" traveltime="12.24" overlapTraveltime="12.85" density="29.78" laneDensity="29.78" occupancy="14.89" waitingTime="0.00" speed="8.17" departed="0" arrived="0" entered="73" left="74" laneChangedFrom="0" laneChangedTo="0"/>
    </interval>
    <interval begin="1500.00" end="1800.00" id="la1">
        <edge id="center" sampledSeconds="1728.83" traveltime="23.49" overlapTraveltime="23.88" density="19.21" laneDensity="19.21" occupancy="9.60" waitingTime="0.00" speed="12.77" departed="0" arrived="0" entered="74" left="72" laneChangedFrom="0" laneChangedTo="0"/>
        <edge id="left" sampledSeconds="0.00" departed="0" arrived="0" entered="0" left="0" laneChangedFrom="0" laneChangedTo="0"/>
        <edge id="left_d" sampledSeconds="0.00" departed="0" arrived="0" entered="0" left="0" laneChangedFrom="0" laneChangedTo="0"/>
        <edge id="origin" sampledSeconds="1147.31" traveltime="15.56" overlapTraveltime="15.95" density="19.12" laneDensity="19.12" occupancy="9.56" waitingTime="0.00" speed="12.85" departed="72" arrived="0" entered="0" left="74" laneChangedFrom="0" laneChangedTo="0"/>
        <edge id="right" sampledSeconds="562.70" traveltime="7.60" overlapTraveltime="7.98" density="18.76" laneDensity="18.76" occupancy="9.38" waitingTime="0.00" speed="13.16" departed="0" arrived="74" entered="75" left="0" laneChangedFrom="0" laneChangedTo="0"/>
        <edge id="right_u" sampledSeconds="0.00" departed="0" arrived="0" entered="0" left="0" laneChangedFrom="0" laneChangedTo="0"/>
        <edge id="tls" sampledSeconds="940.54" traveltime="12.79" overlapTraveltime="13.43" density="31.35" laneDensity="31.35" occupancy="15.68" waitingTime="0.00" speed="7.82" departed="0" arrived="0" entered="72" left="75" laneChangedFrom="0" laneChangedTo="0"/>
    </interval>
    <interval begin="1800.00" end="2100.00" id="la1">
        <edge id="center" sampledSeconds="2572.28" traveltime="23.58" overlapTraveltime="23.98" density="28.58" laneDensity="28.58" occupancy="14.29" waitingTime="0.00" speed="12.72" departed="0" arrived="0" entered="110" left="109" laneChangedFrom="0" laneChangedTo="0"/>
        <edge id="left" sampledSeconds="0.00" departed="0" arrived="0" entered="0" left="0" laneChangedFrom="0" laneChangedTo="0"/>
        <edge id="left_d" sampledSeconds="0.00" departed="0" arrived="0" entered="0" left="0" laneChangedFrom="0" laneChangedTo="0"/>
        <edge id="origin" sampledSeconds="1714.07" traveltime="15.33" overlapTraveltime="15.71" density="28.57" laneDensity="28.57" occupancy="14.28" waitingTime="0.00" speed="13.04" departed="114" arrived="0" entered="0" left="110" laneChangedFrom="0" laneChangedTo="0"/>
        <edge id="right" sampledSeconds="770.77" traveltime="7.38" overlapTraveltime="7.75" density="25.69" laneDensity="25.69" occupancy="12.85" waitingTime="0.00" speed="13.55" departed="0" arrived="103" entered="104" left="0" laneChangedFrom="0" laneChangedTo="0"/>
        <edge id="right_u" sampledSeconds="0.00" departed="0" arrived="0" entered="0" left="0" laneChangedFrom="0" laneChangedTo="0"/>
        <edge id="tls" sampledSeconds="1563.85" traveltime="14.80" overlapTraveltime="15.54" density="52.13" laneDensity="52.13" occupancy="26.06" waitingTime="0.00" speed="6.76" departed="0" arrived="0" entered="109" left="104" laneChangedFrom="0" laneChangedTo="0"/>
    </interval>
    <interval begin="2100.00" end="2400.00" id="la1">
        <edge id="center" sampledSeconds="2814.42" traveltime="24.89" overlapTraveltime="25.30" density="31.27" laneDensity="31.27" occupancy="15.64" waitingTime="0.00" speed="12.05" departed="0" arrived="0" entered="113" left="113" laneChangedFrom="0" laneChangedTo="0"/>
        <edge id="left" sampledSeconds="0.00" departed="0" arrived="0" entered="0" left="0" laneChangedFrom="0" laneChangedTo="0"/>
        <edge id="left_d" sampledSeconds="0.00" departed="0" arrived="0" entered="0" left="0" laneChangedFrom="0" laneChangedTo="0"/>
        <edge id="origin" sampledSeconds="1785.89" traveltime="15.75" overlapTraveltime="16.15" density="29.76" laneDensity="29.76" occupancy="14.88" waitingTime="0.00" speed="12.70" departed="114" arrived="0" entered="0" left="113" laneChangedFrom="0" laneChangedTo="0"/>
        <edge id="right" sampledSeconds="818.98" traveltime="7.48" overlapTraveltime="7.85" density="27.30" laneDensity="27.30" occupancy="13.65" waitingTime="0.00" speed="13.37" departed="0" arrived="110" entered="110" left="0" laneChangedFrom="0" laneChangedTo="0"/>
        <edge id="right_u" sampledSeconds="0.00" departed="0" arrived="0" entered="0" left="0" laneChangedFrom="0" laneChangedTo="0"/>
        <edge id="tls" sampledSeconds="1977.16" traveltime="17.48" overlapTraveltime="18.35" density="65.91" laneDensity="65.91" occupancy="32.95" waitingTime="0.00" speed="5.72" departed="0" arrived="0" entered="113" left="110" laneChangedFrom="0" laneChangedTo="0"/>
    </interval>
    <interval begin="2400.00" end="2700.00" id="la1">
        <edge id="center" sampledSeconds="2623.06" traveltime="23.22" overlapTraveltime="23.60" density="29.15" laneDensity="29.15" occupancy="14.57" waitingTime="0.00" speed="12.92" departed="0" arrived="0" entered="113" left="113" laneChangedFrom="0" laneChangedTo="0"/>
        <edge id="left" sampledSeconds="0.00" departed="0" arrived="0" entered="0" left="0" laneChangedFrom="0" laneChangedTo="0"/>
        <edge id="left_d" sampledSeconds="0.00" departed="0" arrived="0" entered="0" left="0" laneChangedFrom="0" laneChangedTo="0"/>
        <edge id="origin" sampledSeconds="1751.88" traveltime="15.46" overlapTraveltime="15.85" density="29.20" laneDensity="29.20" occupancy="14.60" waitingTime="0.00" speed="12.94" departed="112" arrived="0" entered="0" left="113" laneChangedFrom="0" laneChangedTo="0"/>
        <edge id="right" sampledSeconds="862.09" traveltime="7.32" overlapTraveltime="7.69" density="28.74" laneDensity="28.74" occupancy="14.37" waitingTime="0.00" speed="13.66" departed="0" arrived="118" entered="118" left="0" laneChangedFrom="0" laneChangedTo="0"/>
        <edge id="right_u" sampledSeconds="0.00" departed="0" arrived="0" entered="0" left="0" laneChangedFrom="0" laneChangedTo="0"/>
        <edge id="tls" sampledSeconds="1849.28" traveltime="16.14" overlapTraveltime="16.95" density="61.64" laneDensity="61.64" occupancy="30.82" waitingTime="0.00" speed="6.19" departed="0" arrived="0" entered="113" left="118" laneChangedFrom="0" laneChangedTo="0"/>
    </interval>
    <interval begin="2700.00" end="3000.00" id="la1">
        <edge id="center" sampledSeconds="7253.88" traveltime="54.52" overlapTraveltime="55.43" density="80.60" laneDensity="80.60" occupancy="40.30" waitingTime="0.00" speed="5.50" departed="0" arrived="0" entered="150" left="117" laneChangedFrom="0" laneChangedTo="0"/>
        <edge id="left" sampledSeconds="0.00" departed="0" arrived="0" entered="0" left="0" laneChangedFrom="0" laneChangedTo="0"/>
        <edge id="left_d" sampledSeconds="0.00" departed="0" arrived="0" entered="0" left="0" laneChangedFrom="0" laneChangedTo="0"/>
        <edge id="origin" sampledSeconds="2536.56" traveltime="16.83" overlapTraveltime="17.25" density="42.28" laneDensity="42.28" occupancy="21.14" waitingTime="0.00" speed="11.88" departed="153" arrived="0" entered="0" left="150" laneChangedFrom="0" laneChangedTo="0"/>
        <edge id="right" sampledSeconds="860.74" traveltime="7.45" overlapTraveltime="7.82" density="28.69" laneDensity="28.69" occupancy="14.35" waitingTime="0.00" speed="13.42" departed="0" arrived="115" entered="116" left="0" laneChangedFrom="0" laneChangedTo="0"/>
        <edge id="right_u" sampledSeconds="0.00" departed="0" arrived="0" entered="0" left="0" laneChangedFrom="0" laneChangedTo="0"/>
        <edge id="tls" sampledSeconds="1715.14" traveltime="14.77" overlapTraveltime="15.51" density="57.17" laneDensity="57.17" occupancy="28.59" waitingTime="0.00" speed="6.77" departed="0" arrived="0" entered="117" left="116" laneChangedFrom="0" laneChangedTo="0"/>
    </interval>
    <interval begin="3000.00" end="3300.00" id="la1">
        <edge id="center" sampledSeconds="6802.02" traveltime="64.90" overlapTraveltime="65.98" density="75.58" laneDensity="75.58" occupancy="37.79" waitingTime="0.00" speed="4.62" departed="0" arrived="0" entered="90" left="120" laneChangedFrom="0" laneChangedTo="0"/>
        <edge id="left" sampledSeconds="0.00" departed="0" arrived="0" entered="0" left="0" laneChangedFrom="0" laneChangedTo="0"/>
        <edge id="left_d" sampledSeconds="0.00" departed="0" arrived="0" entered="0" left="0" laneChangedFrom="0" laneChangedTo="0"/>
        <edge id="origin" sampledSeconds="7449.48" traveltime="74.56" overlapTraveltime="76.42" density="124.16" laneDensity="124.16" occupancy="62.08" waitingTime="0.00" speed="2.68" departed="106" arrived="0" entered="0" left="90" laneChangedFrom="0" laneChangedTo="0"/>
        <edge id="right" sampledSeconds="900.28" traveltime="7.66" overlapTraveltime="8.04" density="30.01" laneDensity="30.01" occupancy="15.00" waitingTime="0.00" speed="13.06" departed="0" arrived="118" entered="117" left="0" laneChangedFrom="0" laneChangedTo="0"/>
        <edge id="right_u" sampledSeconds="0.00" departed="0" arrived="0" entered="0" left="0" laneChangedFrom="0" laneChangedTo="0"/>
        <edge id="tls" sampledSeconds="1704.87" traveltime="14.34" overlapTraveltime="15.06" density="56.83" laneDensity="56.83" occupancy="28.41" waitingTime="0.00" speed="6.97" departed="0" arrived="0" entered="120" left="117" laneChangedFrom="0" laneChangedTo="0"/>
    </interval>
    <interval begin="3300.00" end="3600.00" id="la1">
        <edge id="center" sampledSeconds="4138.09" traveltime="33.90" overlapTraveltime="34.47" density="45.98" laneDensity="45.98" occupancy="22.99" waitingTime="0.00" speed="8.85" departed="0" arrived="0" entered="120" left="117" laneChangedFrom="0" laneChangedTo="0"/>
        <edge id="left" sampledSeconds="0.00" departed="0" arrived="0" entered="0" left="0" laneChangedFrom="0" laneChangedTo="0"/>
        <edge id="left_d" sampledSeconds="0.00" departed="0" arrived="0" entered="0" left="0" laneChangedFrom="0" laneChangedTo="0"/>
        <edge id="origin" sampledSeconds="5814.52" traveltime="49.64" overlapTraveltime="50.88" density="96.91" laneDensity="96.91" occupancy="48.45" waitingTime="0.00" speed="4.03" departed="116" arrived="0" entered="0" left="120" laneChangedFrom="0" laneChangedTo="0"/>
        <edge id="right" sampledSeconds="901.29" traveltime="7.48" overlapTraveltime="7.86" density="30.04" laneDensity="30.04" occupancy="15.02" waitingTime="0.00" speed="13.36" departed="0" arrived="120" entered="121" left="0" laneChangedFrom="0" laneChangedTo="0"/>
        <edge id="right_u" sampledSeconds="0.00" departed="0" arrived="0" entered="0" left="0" laneChangedFrom="0" laneChangedTo="0"/>
        <edge id="tls" sampledSeconds="2564.42" traveltime="21.48" overlapTraveltime="22.55" density="85.48" laneDensity="85.48" occupancy="42.74" waitingTime="0.00" speed="4.66" departed="0" arrived="0" entered="117" left="121" laneChangedFrom="0" laneChangedTo="0"/>
    </interval>
    <interval begin="3600.00" end="3900.00" id="la1">
        <edge id="center" sampledSeconds="4087.39" traveltime="34.05" overlapTraveltime="34.62" density="45.42" laneDensity="45.42" occupancy="22.71" waitingTime="0.00" speed="8.81" departed="0" arrived="0" entered="122" left="124" laneChangedFrom="0" laneChangedTo="0"/>
        <edge id="left" sampledSeconds="0.00" departed="0" arrived="0" entered="0" left="0" laneChangedFrom="0" laneChangedTo="0"/>
        <edge id="left_d" sampledSeconds="0.00" departed="0" arrived="0" entered="0" left="0" laneChangedFrom="0" laneChangedTo="0"/>
        <edge id="origin" sampledSeconds="5118.80" traveltime="42.90" overlapTraveltime="43.97" density="85.31" laneDensity="85.31" occupancy="42.66" waitingTime="0.00" speed="4.66" departed="116" arrived="0" entered="0" left="122" laneChangedFrom="0" laneChangedTo="0"/>
        <edge id="right" sampledSeconds="919.63" traveltime="7.70" overlapTraveltime="8.08" density="30.65" laneDensity="30.65" occupancy="15.33" waitingTime="0.00" speed="12.99" departed="0" arrived="119" entered="119" left="0" laneChangedFrom="0" laneChangedTo="0"/>
        <edge id="right_u" sampledSeconds="0.00" departed="0" arrived="0" entered="0" left="0" laneChangedFrom="0" laneChangedTo="0"/>
        <edge id="tls" sampledSeconds="2347.01" traveltime="19.40" overlapTraveltime="20.37" density="78.23" laneDensity="78.23" occupancy="39.12" waitingTime="0.00" speed="5.15" departed="0" arrived="0" entered="124" left="119" laneChangedFrom="0" laneChangedTo="0"/>
    </interval>
    <interval begin="3900.00" end="4200.00" id="la1">
        <edge id="center" sampledSeconds="9691.45" traveltime="74.82" overlapTraveltime="76.07" density="107.68" laneDensity="107.68" occupancy="53.84" waitingTime="0.00" speed="4.01" departed="0" arrived="0" entered="131" left="115" laneChangedFrom="0" laneChangedTo="0"/>
        <edge id="left" sampledSeconds="0.00" departed="0" arrived="0" entered="0" left="0" laneChangedFrom="0" laneChangedTo="0"/>
        <edge id="left_d" sampledSeconds="0.00" departed="0" arrived="0" entered="0" left="0" laneChangedFrom="0" laneChangedTo="0"/>
        <edge id="origin" sampledSeconds="3659.71" traveltime="26.67" overlapTraveltime="27.33" density="61.00" laneDensity="61.00" occupancy="30.50" waitingTime="0.00" speed="7.50" departed="146" arrived="0" entered="0" left="131" laneChangedFrom="0" laneChangedTo="0"/>
        <edge id="right" sampledSeconds="887.20" traveltime="7.49" overlapTraveltime="7.87" density="29.57" laneDensity="29.57" occupancy="14.79" waitingTime="0.00" speed="13.35" departed="0" arrived="119" entered="119" left="0" laneChangedFrom="0" laneChangedTo="0"/>
        <edge id="right_u" sampledSeconds="0.00" departed="0" arrived="0" entered="0" left="0" laneChangedFrom="0" laneChangedTo="0"/>
        <edge id="tls" sampledSeconds="1954.96" traveltime="16.78" overlapTraveltime="17.62" density="65.17" laneDensity="65.17" occupancy="32.58" waitingTime="0.00" speed="5.96" departed="0" arrived="0" entered="115" left="119" laneChangedFrom="0" laneChangedTo="0"/>
    </interval>
    <interval begin="4200.00" end="4500.00" id="la1">
        <edge id="center" sampledSeconds="4436.77" traveltime="41.59" overlapTraveltime="42.28" density="49.30" laneDensity="49.30" occupancy="24.65" waitingTime="0.00" speed="7.21" departed="0" arrived="0" entered="107" left="122" laneChangedFrom="0" laneChangedTo="0"/>
        <edge id="left" sampledSeconds="0.00" departed="0" arrived="0" entered="0" left="0" laneChangedFrom="0" laneChangedTo="0"/>
        <edge id="left_d" sampledSeconds="0.00" departed="0" arrived="0" entered="0" left="0" laneChangedFrom="0" laneChangedTo="0"/>
        <edge id="origin" sampledSeconds="8135.65" traveltime="78.20" overlapTraveltime="80.16" density="135.59" laneDensity="135.59" occupancy="67.80" waitingTime="0.00" speed="2.56" departed="100" arrived="0" entered="0" left="107" laneChangedFrom="0" laneChangedTo="0"/>
        <edge id="right" sampledSeconds="898.78" traveltime="7.58" overlapTraveltime="7.95" density="29.96" laneDensity="29.96" occupancy="14.98" waitingTime="0.00" speed="13.20" departed="0" arrived="118" entered="118" left="0" laneChangedFrom="0" laneChangedTo="0"/>
        <edge id="right_u" sampledSeconds="0.00" departed="0" arrived="0" entered="0" left="0" laneChangedFrom="0" laneChangedTo="0"/>
        <edge id="tls" sampledSeconds="2178.77" traveltime="18.01" overlapTraveltime="18.91" density="72.63" laneDensity="72.63" occupancy="36.31" waitingTime="0.00" speed="5.55" departed="0" arrived="0" entered="122" left="118" laneChangedFrom="0" laneChangedTo="0"/>
    </interval>
    <interval begin="4500.00" end="4800.00" id="la1">
        <edge id="center" sampledSeconds="4160.55" traveltime="33.60" overlapTraveltime="34.16" density="46.23" laneDensity="46.23" occupancy="23.11" waitingTime="0.00" speed="8.93" departed="0" arrived="0" entered="124" left="123" laneChangedFrom="0" laneChangedTo="0"/>
        <edge id="left" sampledSeconds="0.00" departed="0" arrived="0" entered="0" left="0" laneChangedFrom="0" laneChangedTo="0"/>
        <edge id="left_d" sampledSeconds="0.00" departed="0" arrived="0" entered="0" left="0" laneChangedFrom="0" laneChangedTo="0"/>
        <edge id="origin" sampledSeconds="5671.10" traveltime="47.77" overlapTraveltime="48.96" density="94.52" laneDensity="94.52" occupancy="47.26" waitingTime="0.00" speed="4.19" departed="115" arrived="0" entered="0" left="124" laneChangedFrom="0" laneChangedTo="0"/>
        <edge id="right" sampledSeconds="901.28" traveltime="7.50" overlapTraveltime="7.87" density="30.04" laneDensity="30.04" occupancy="15.02" waitingTime="0.00" speed="13.34" departed="0" arrived="120" entered="121" left="0" laneChangedFrom="0" laneChangedTo="0"/>
        <edge id="right_u" sampledSeconds="0.00" departed="0" arrived="0" entered="0" left="0" laneChangedFrom="0" laneChangedTo="0"/>
        <edge id="tls" sampledSeconds="2807.88" traveltime="22.87" overlapTraveltime="24.01" density="93.60" laneDensity="93.60" occupancy="46.80" waitingTime="0.00" speed="4.37" departed="0" arrived="0" entered="123" left="121" laneChangedFrom="0" laneChangedTo="0"/>
    </interval>
    <interval begin="4800.00" end="5100.00" id="la1">
        <edge id="center" sampledSeconds="5990.61" traveltime="47.93" overlapTraveltime="48.73" density="66.56" laneDensity="66.56" occupancy="33.28" waitingTime="0.00" speed="6.26" departed="0" arrived="0" entered="135" left="113" laneChangedFrom="0" laneChangedTo="0"/>
        <edge id="left" sampledSeconds="0.00" departed="0" arrived="0" entered="0" left="0" laneChangedFrom="0" laneChangedTo="0"/>
        <edge id="left_d" sampledSeconds="0.00" departed="0" arrived="0" entered="0" left="0" laneChangedFrom="0" laneChangedTo="0"/>
        <edge id="origin" sampledSeconds="3973.28" traveltime="29.86" overlapTraveltime="30.61" density="66.22" laneDensity="66.22" occupancy="33.11" waitingTime="0.00" speed="6.70" departed="130" arrived="0" entered="0" left="135" laneChangedFrom="0" laneChangedTo="0"/>
        <edge id="right" sampledSeconds="872.22" traveltime="7.29" overlapTraveltime="7.65" density="29.07" laneDensity="29.07" occupancy="14.54" waitingTime="0.00" speed="13.72" departed="0" arrived="120" entered="119" left="0" laneChangedFrom="0" laneChangedTo="0"/>
        <edge id="right_u" sampledSeconds="0.00" departed="0" arrived="0" entered="0" left="0" laneChangedFrom="0" laneChangedTo="0"/>
        <edge id="tls" sampledSeconds="2336.22" traveltime="20.35" overlapTraveltime="21.36" density="77.87" laneDensity="77.87" occupancy="38.94" waitingTime="0.00" speed="4.91" departed="0" arrived="0" entered="113" left="119" laneChangedFrom="0" laneChangedTo="0"/>
    </interval>
    <interval begin="5100.00" end="5400.00" id="la1">
        <edge id="center" sampledSeconds="7915.68" traveltime="73.69" overlapTraveltime="74.92" density="87.95" laneDensity="87.95" occupancy="43.98" waitingTime="0.00" speed="4.07" departed="0" arrived="0" entered="94" left="119" laneChangedFrom="0" laneChangedTo="0"/>
        <edge id="left" sampledSeconds="0.00" departed="0" arrived="0" entered="0" left="0" laneChangedFrom="0" laneChangedTo="0"/>
        <edge id="left_d" sampledSeconds="0.00" departed="0" arrived="0" entered="0" left="0" laneChangedFrom="0" laneChangedTo="0"/>
        <edge id="origin" sampledSeconds="6810.46" traveltime="63.95" overlapTraveltime="65.55" density="113.51" laneDensity="113.51" occupancy="56.75" waitingTime="0.00" speed="3.13" departed="115" arrived="0" entered="0" left="94" laneChangedFrom="0" laneChangedTo="0"/>
        <edge id="right" sampledSeconds="883.45" traveltime="7.52" overlapTraveltime="7.90" density="29.45" laneDensity="29.45" occupancy="14.72" waitingTime="0.00" speed="13.30" departed="0" arrived="118" entered="118" left="0" laneChangedFrom="0" laneChangedTo="0"/>
        <edge id="right_u" sampledSeconds="0.00" departed="0" arrived="0" entered="0" left="0" laneChangedFrom="0" laneChangedTo="0"/>
        <edge id="tls" sampledSeconds="2054.46" traveltime="17.42" overlapTraveltime="18.29" density="68.48" laneDensity="68.48" occupancy="34.24" waitingTime="0.00" speed="5.74" departed="0" arrived="0" entered="119" left="118" laneChangedFrom="0" laneChangedTo="0"/>
    </interval>
    <interval begin="5400.00" end="5700.00" id="la1">
        <edge id="center" sampledSeconds="4130.29" traveltime="34.27" overlapTraveltime="34.84" density="45.89" laneDensity="45.89" occupancy="22.95" waitingTime="0.00" speed="8.75" departed="0" arrived="0" entered="120" left="120" laneChangedFrom="0" laneChangedTo="0"/>
        <edge id="left" sampledSeconds="0.00" departed="0" arrived="0" entered="0" left="0" laneChangedFrom="0" laneChangedTo="0"/>
        <edge id="left_d" sampledSeconds="0.00" departed="0" arrived="0" entered="0" left="0" laneChangedFrom="0" laneChangedTo="0"/>
        <edge id="origin" sampledSeconds="6761.71" traveltime="58.47" overlapTraveltime="59.93" density="112.70" laneDensity="112.70" occupancy="56.35" waitingTime="0.00" speed="3.42" departed="112" arrived="0" entered="0" left="120" laneChangedFrom="0" laneChangedTo="0"/>